ITEM: TIMESTEP
0
ITEM: NUMBER OF ATOMS
14
ITEM: BOX BOUNDS pp pp pp
0 20
0 17.3205
-0.25 0.25
ITEM: ATOMS xu yu id 
9.5 7.79423 180 
9 8.66025 219 
9.5 9.52628 220 
9 10.3923 259 
9.5 11.2583 260 
10.5 7.79423 182 
11.5 7.79423 184 
10 8.66025 221 
11 8.66025 223 
11.5 9.52628 224 
10 10.3923 261 
10.5 11.2583 262 
11 10.3923 263 
11.5 11.2583 264 
ITEM: TIMESTEP
40
ITEM: NUMBER OF ATOMS
14
ITEM: BOX BOUNDS pp pp pp
0 20
0 17.3205
-0.25 0.25
ITEM: ATOMS xu yu id 
9.43044 7.77444 180 
9.06981 8.63283 219 
9.68462 9.52369 220 
9.06827 10.3766 259 
9.41296 11.3131 260 
10.4234 7.83335 182 
11.3947 7.9185 184 
10.0224 8.69164 221 
10.9927 8.79624 223 
11.5096 9.55066 224 
9.9799 10.5001 261 
10.4957 11.2838 262 
10.8924 10.2542 263 
11.4757 11.204 264 
ITEM: TIMESTEP
80
ITEM: NUMBER OF ATOMS
14
ITEM: BOX BOUNDS pp pp pp
0 20
0 17.3205
-0.25 0.25
ITEM: ATOMS xu yu id 
9.44886 7.77395 180 
9.01761 8.62131 219 
9.66184 9.56143 220 
8.8937 10.4327 259 
9.46626 11.2505 260 
10.4224 7.77492 182 
11.3792 7.81938 184 
9.95168 8.65098 221 
10.9577 8.74867 223 
11.515 9.52743 224 
9.94174 10.4484 261 
10.4184 11.241 262 
10.9387 10.367 263 
11.4243 11.1593 264 
ITEM: TIMESTEP
120
ITEM: NUMBER OF ATOMS
14
ITEM: BOX BOUNDS pp pp pp
0 20
0 17.3205
-0.25 0.25
ITEM: ATOMS xu yu id 
9.42564 7.81724 180 
8.91165 8.69164 219 
9.46857 9.42858 220 
9.01273 10.51 259 
9.40665 11.3727 260 
10.478 7.77458 182 
11.4582 7.84292 184 
9.97662 8.62153 221 
10.9311 8.63109 223 
11.4343 9.4834 224 
10.0048 10.2827 261 
10.4182 11.2107 262 
10.9655 10.3446 263 
11.4125 11.2548 264 
ITEM: TIMESTEP
160
ITEM: NUMBER OF ATOMS
14
ITEM: BOX BOUNDS pp pp pp
0 20
0 17.3205
-0.25 0.25
ITEM: ATOMS xu yu id 
9.48234 7.81207 180 
8.98719 8.62644 219 
9.29894 9.49264 220 
8.95836 10.4111 259 
9.46829 11.2082 260 
10.5183 7.81204 182 
11.4771 7.84869 184 
9.89678 8.71288 221 
10.9484 8.64118 223 
11.3505 9.525 224 
9.96864 10.2643 261 
10.3987 11.2158 262 
10.9354 10.4067 263 
11.3896 11.3243 264 
ITEM: TIMESTEP
200
ITEM: NUMBER OF ATOMS
14
ITEM: BOX BOUNDS pp pp pp
0 20
0 17.3205
-0.25 0.25
ITEM: ATOMS xu yu id 
9.40871 7.80901 180 
8.95247 8.65674 219 
9.48579 9.53741 220 
8.91559 10.3955 259 
9.58758 11.2175 260 
10.4343 7.80624 182 
11.4133 7.81921 184 
10.0015 8.68925 221 
10.9552 8.77333 223 
11.4207 9.65927 224 
9.93485 10.36 261 
10.534 11.3265 262 
10.8955 10.4638 263 
11.5149 11.2663 264 
ITEM: TIMESTEP
240
ITEM: NUMBER OF ATOMS
14
ITEM: BOX BOUNDS pp pp pp
0 20
0 17.3205
-0.25 0.25
ITEM: ATOMS xu yu id 
9.44673 7.80841 180 
8.9586 8.73228 219 
9.55655 9.53636 220 
9.11177 10.4611 259 
9.58042 11.3893 260 
10.4662 7.85633 182 
11.3982 7.89204 184 
9.91724 8.64476 221 
10.8847 8.75825 223 
11.5061 9.53537 224 
10.0584 10.499 261 
10.5268 11.3387 262 
11.0125 10.4315 263 
11.4676 11.3523 264 
ITEM: TIMESTEP
280
ITEM: NUMBER OF ATOMS
14
ITEM: BOX BOUNDS pp pp pp
0 20
0 17.3205
-0.25 0.25
ITEM: ATOMS xu yu id 
9.43178 7.80872 180 
9.009 8.68398 219 
9.56522 9.68895 220 
9.09192 10.4721 259 
9.55638 11.3923 260 
10.3664 7.82947 182 
11.4532 7.82583 184 
10.0023 8.79116 221 
10.9885 8.63843 223 
11.3908 9.55383 224 
10.0307 10.4954 261 
10.6131 11.4306 262 
11.0969 10.4628 263 
11.5642 11.3876 264 
ITEM: TIMESTEP
320
ITEM: NUMBER OF ATOMS
14
ITEM: BOX BOUNDS pp pp pp
0 20
0 17.3205
-0.25 0.25
ITEM: ATOMS xu yu id 
9.51927 7.71674 180 
9.11837 8.59905 219 
9.7976 9.68967 220 
9.02369 10.4044 259 
9.55472 11.2767 260 
10.5056 7.82764 182 
11.4762 7.76749 184 
10.0816 8.69826 221 
11.0277 8.65662 223 
11.4195 9.63009 224 
10.2014 10.5335 261 
10.5658 11.3991 262 
11.0973 10.6201 263 
11.5749 11.4272 264 
ITEM: TIMESTEP
360
ITEM: NUMBER OF ATOMS
14
ITEM: BOX BOUNDS pp pp pp
0 20
0 17.3205
-0.25 0.25
ITEM: ATOMS xu yu id 
9.60993 7.78739 180 
9.09658 8.6609 219 
9.74019 9.45583 220 
9.11262 10.2763 259 
9.51453 11.2056 260 
10.6198 7.73685 182 
11.659 7.86663 184 
10.1378 8.58287 221 
11.0964 8.75329 223 
11.4639 9.64971 224 
10.0603 10.4085 261 
10.5122 11.3216 262 
11.0518 10.5243 263 
11.6525 11.3217 264 
ITEM: TIMESTEP
400
ITEM: NUMBER OF ATOMS
14
ITEM: BOX BOUNDS pp pp pp
0 20
0 17.3205
-0.25 0.25
ITEM: ATOMS xu yu id 
9.63099 7.74524 180 
8.96447 8.63717 219 
9.52705 9.44173 220 
9.03984 10.3364 259 
9.50209 11.2308 260 
10.6171 7.7402 182 
11.5514 7.84976 184 
10.1688 8.55296 221 
11.1444 8.69311 223 
11.675 9.60365 224 
10.0946 10.2114 261 
10.5292 11.2698 262 
11.0195 10.4052 263 
11.486 11.2772 264 
ITEM: TIMESTEP
440
ITEM: NUMBER OF ATOMS
14
ITEM: BOX BOUNDS pp pp pp
0 20
0 17.3205
-0.25 0.25
ITEM: ATOMS xu yu id 
9.51382 7.81921 180 
9.07073 8.65785 219 
9.37652 9.58301 220 
8.95256 10.3731 259 
9.519 11.1883 260 
10.5636 7.81166 182 
11.5586 7.75888 184 
9.97406 8.71196 221 
11.0613 8.75452 223 
11.6741 9.53559 224 
10.11 10.2164 261 
10.4661 11.0626 262 
11.0791 10.3135 263 
11.4659 11.2128 264 
ITEM: TIMESTEP
480
ITEM: NUMBER OF ATOMS
14
ITEM: BOX BOUNDS pp pp pp
0 20
0 17.3205
-0.25 0.25
ITEM: ATOMS xu yu id 
9.54009 7.89805 180 
8.87963 8.64946 219 
9.42516 9.45076 220 
8.9388 10.3749 259 
9.6105 11.1158 260 
10.4613 7.89475 182 
11.4705 7.81553 184 
10.1074 8.78243 221 
11.0059 8.67483 223 
11.5311 9.45112 224 
9.98651 10.2607 261 
10.5813 11.2236 262 
11.0034 10.2341 263 
11.5418 11.1202 264 
ITEM: TIMESTEP
520
ITEM: NUMBER OF ATOMS
14
ITEM: BOX BOUNDS pp pp pp
0 20
0 17.3205
-0.25 0.25
ITEM: ATOMS xu yu id 
9.43831 7.94943 180 
8.9113 8.77206 219 
9.45131 9.53066 220 
9.03135 10.3601 259 
9.49113 11.1999 260 
10.4677 7.89641 182 
11.4928 7.78855 184 
10.0343 8.74609 221 
10.9885 8.70131 223 
11.523 9.50349 224 
10.0073 10.291 261 
10.5385 11.1826 262 
10.9438 10.3148 263 
11.5477 11.0879 264 
ITEM: TIMESTEP
560
ITEM: NUMBER OF ATOMS
14
ITEM: BOX BOUNDS pp pp pp
0 20
0 17.3205
-0.25 0.25
ITEM: ATOMS xu yu id 
9.47813 7.79677 180 
8.98351 8.63901 219 
9.53233 9.64231 220 
9.08333 10.4884 259 
9.48539 11.3291 260 
10.4717 7.86032 182 
11.4795 7.83987 184 
9.9472 8.67465 221 
10.8765 8.8401 223 
11.5281 9.56146 224 
10.0323 10.4586 261 
10.5283 11.2636 262 
11.0665 10.3458 263 
11.4724 11.1714 264 
ITEM: TIMESTEP
600
ITEM: NUMBER OF ATOMS
14
ITEM: BOX BOUNDS pp pp pp
0 20
0 17.3205
-0.25 0.25
ITEM: ATOMS xu yu id 
9.48704 7.77518 180 
9.02099 8.67765 219 
9.71297 9.56678 220 
9.0197 10.4498 259 
9.51311 11.3934 260 
10.4077 7.79018 182 
11.4302 7.80193 184 
9.94101 8.6498 221 
10.889 8.67022 223 
11.4565 9.57686 224 
9.98227 10.6101 261 
10.6654 11.4185 262 
10.9785 10.478 263 
11.5593 11.2541 264 
ITEM: TIMESTEP
640
ITEM: NUMBER OF ATOMS
14
ITEM: BOX BOUNDS pp pp pp
0 20
0 17.3205
-0.25 0.25
ITEM: ATOMS xu yu id 
9.55179 7.7841 180 
9.0224 8.67889 219 
9.71864 9.6362 220 
9.01723 10.4548 259 
9.46439 11.3572 260 
10.4793 7.70009 182 
11.4802 7.71434 184 
9.9997 8.60032 221 
10.9513 8.60656 223 
11.3261 9.51768 224 
10.0081 10.4931 261 
10.3741 11.3683 262 
10.9814 10.4735 263 
11.512 11.3771 264 
ITEM: TIMESTEP
680
ITEM: NUMBER OF ATOMS
14
ITEM: BOX BOUNDS pp pp pp
0 20
0 17.3205
-0.25 0.25
ITEM: ATOMS xu yu id 
9.52822 7.75777 180 
9.12172 8.67793 219 
9.50676 9.4609 220 
9.11748 10.3628 259 
9.49629 11.2506 260 
10.5331 7.74361 182 
11.5001 7.76589 184 
10.0609 8.67002 221 
11.027 8.6141 223 
11.2976 9.57671 224 
10.0149 10.416 261 
10.5717 11.2912 262 
11.0315 10.4628 263 
11.523 11.2843 264 
ITEM: TIMESTEP
720
ITEM: NUMBER OF ATOMS
14
ITEM: BOX BOUNDS pp pp pp
0 20
0 17.3205
-0.25 0.25
ITEM: ATOMS xu yu id 
9.54971 7.7818 180 
9.01335 8.59073 219 
9.69121 9.55673 220 
9.05901 10.381 259 
9.55421 11.1835 260 
10.4984 7.75377 182 
11.4692 7.72008 184 
10.0368 8.67979 221 
11.0504 8.6134 223 
11.4125 9.484 224 
10.1489 10.3682 261 
10.5071 11.2152 262 
11.1074 10.4459 263 
11.4616 11.3157 264 
ITEM: TIMESTEP
760
ITEM: NUMBER OF ATOMS
14
ITEM: BOX BOUNDS pp pp pp
0 20
0 17.3205
-0.25 0.25
ITEM: ATOMS xu yu id 
9.44633 7.74761 180 
9.01288 8.58717 219 
9.56639 9.50874 220 
9.05264 10.342 259 
9.51427 11.191 260 
10.4902 7.78804 182 
11.5427 7.80989 184 
10.0073 8.60247 221 
10.9643 8.69399 223 
11.5479 9.51149 224 
10.0229 10.3787 261 
10.5583 11.2695 262 
11.0498 10.3533 263 
11.58 11.2207 264 
ITEM: TIMESTEP
800
ITEM: NUMBER OF ATOMS
14
ITEM: BOX BOUNDS pp pp pp
0 20
0 17.3205
-0.25 0.25
ITEM: ATOMS xu yu id 
9.5039 7.80569 180 
8.91765 8.57924 219 
9.36998 9.41663 220 
8.96448 10.2745 259 
9.50335 11.2367 260 
10.4475 7.81728 182 
11.471 7.89861 184 
9.96263 8.64709 221 
10.9877 8.86387 223 
11.5631 9.57486 224 
9.99876 10.3336 261 
10.4789 11.215 262 
10.9622 10.3262 263 
11.4497 11.2961 264 
ITEM: TIMESTEP
840
ITEM: NUMBER OF ATOMS
14
ITEM: BOX BOUNDS pp pp pp
0 20
0 17.3205
-0.25 0.25
ITEM: ATOMS xu yu id 
9.4065 7.86921 180 
8.87705 8.68566 219 
9.40297 9.51989 220 
8.94867 10.4041 259 
9.45389 11.1506 260 
10.4218 7.87437 182 
11.4949 7.94793 184 
9.95751 8.73926 221 
10.9066 8.7597 223 
11.5095 9.51438 224 
9.90266 10.2694 261 
10.4739 11.2038 262 
10.9176 10.4165 263 
11.4427 11.2354 264 
ITEM: TIMESTEP
880
ITEM: NUMBER OF ATOMS
14
ITEM: BOX BOUNDS pp pp pp
0 20
0 17.3205
-0.25 0.25
ITEM: ATOMS xu yu id 
9.38438 7.8728 180 
8.95443 8.75302 219 
9.4796 9.61911 220 
8.93312 10.4137 259 
9.44877 11.2393 260 
10.2941 7.90235 182 
11.5146 7.80595 184 
9.90394 8.74501 221 
10.9351 8.59103 223 
11.3457 9.48494 224 
10.0482 10.4432 261 
10.4804 11.2332 262 
10.9922 10.3283 263 
11.3953 11.1785 264 
ITEM: TIMESTEP
920
ITEM: NUMBER OF ATOMS
14
ITEM: BOX BOUNDS pp pp pp
0 20
0 17.3205
-0.25 0.25
ITEM: ATOMS xu yu id 
9.47658 7.8177 180 
8.9846 8.67505 219 
9.47831 9.52785 220 
8.96855 10.4216 259 
9.44311 11.3432 260 
10.5055 7.77375 182 
11.4932 7.77505 184 
10.0001 8.74285 221 
10.9503 8.59904 223 
11.3835 9.45999 224 
9.92122 10.5032 261 
10.3956 11.2965 262 
10.9105 10.4191 263 
11.4853 11.2735 264 
ITEM: TIMESTEP
960
ITEM: NUMBER OF ATOMS
14
ITEM: BOX BOUNDS pp pp pp
0 20
0 17.3205
-0.25 0.25
ITEM: ATOMS xu yu id 
9.49072 7.80227 180 
8.97521 8.6816 219 
9.52957 9.56192 220 
8.95632 10.5011 259 
9.44818 11.3509 260 
10.4662 7.61505 182 
11.4783 7.77907 184 
10.0465 8.61159 221 
10.9853 8.74639 223 
11.4134 9.62899 224 
9.91871 10.407 261 
10.4219 11.2954 262 
10.8291 10.3748 263 
11.3408 11.3058 264 
ITEM: TIMESTEP
1000
ITEM: NUMBER OF ATOMS
14
ITEM: BOX BOUNDS pp pp pp
0 20
0 17.3205
-0.25 0.25
ITEM: ATOMS xu yu id 
9.43525 7.72213 180 
9.05319 8.67791 219 
9.57866 9.48222 220 
8.93896 10.3752 259 
9.34211 11.2181 260 
9.9452 10.4724 261 
10.4755 7.81517 182 
11.4541 7.77199 184 
10.0144 8.60726 221 
10.9885 8.66836 223 
11.5413 9.4821 224 
10.4557 11.2726 262 
10.9698 10.4032 263 
11.4247 11.2252 264 
ITEM: TIMESTEP
1040
ITEM: NUMBER OF ATOMS
14
ITEM: BOX BOUNDS pp pp pp
0 20
0 17.3205
-0.25 0.25
ITEM: ATOMS xu yu id 
9.51303 7.85991 180 
9.00137 8.59607 219 
9.49604 9.52691 220 
9.02869 10.3094 259 
9.46847 11.2187 260 
10.0255 10.3393 261 
10.4107 7.82873 182 
11.504 7.76623 184 
10.0079 8.69796 221 
11.0226 8.60727 223 
11.4955 9.43826 224 
10.5049 11.209 262 
11.0237 10.2828 263 
11.5165 11.3039 264 
ITEM: TIMESTEP
1080
ITEM: NUMBER OF ATOMS
14
ITEM: BOX BOUNDS pp pp pp
0 20
0 17.3205
-0.25 0.25
ITEM: ATOMS xu yu id 
9.47032 7.80607 180 
8.93024 8.63826 219 
9.38842 9.47601 220 
9.00594 10.3316 259 
9.61224 11.1487 260 
10.0196 10.26 261 
10.5811 7.84345 182 
11.5771 7.87467 184 
10.0148 8.66248 221 
10.9952 8.70221 223 
11.5305 9.47059 224 
10.6152 11.2476 262 
11.0037 10.3725 263 
11.547 11.2236 264 
ITEM: TIMESTEP
1120
ITEM: NUMBER OF ATOMS
14
ITEM: BOX BOUNDS pp pp pp
0 20
0 17.3205
-0.25 0.25
ITEM: ATOMS xu yu id 
9.53706 7.7908 180 
8.88387 8.59944 219 
9.43767 9.42317 220 
9.0358 10.4146 259 
9.64005 11.1914 260 
10.0186 10.2275 261 
10.4976 7.83339 182 
11.5256 7.84937 184 
10.0816 8.77218 221 
11.0367 8.70933 223 
11.4713 9.63895 224 
10.5476 11.2723 262 
10.9584 10.4204 263 
11.5971 11.1827 264 
ITEM: TIMESTEP
1160
ITEM: NUMBER OF ATOMS
14
ITEM: BOX BOUNDS pp pp pp
0 20
0 17.3205
-0.25 0.25
ITEM: ATOMS xu yu id 
9.40848 7.81369 180 
9.06096 8.72513 219 
9.47411 9.53807 220 
9.06295 10.3773 259 
9.5132 11.2455 260 
10.011 10.3373 261 
10.457 7.89624 182 
11.4323 7.85403 184 
10.0554 8.81496 221 
11.0222 8.7042 223 
11.5158 9.54604 224 
10.5799 11.3165 262 
11.0789 10.3964 263 
11.533 11.3092 264 
ITEM: TIMESTEP
1200
ITEM: NUMBER OF ATOMS
14
ITEM: BOX BOUNDS pp pp pp
0 20
0 17.3205
-0.25 0.25
ITEM: ATOMS xu yu id 
9.56225 7.81949 180 
9.04339 8.72773 219 
9.64846 9.69352 220 
8.9773 10.3754 259 
9.53315 11.2274 260 
10.0436 10.4666 261 
10.5911 7.86713 182 
11.5319 7.88885 184 
9.99837 8.66562 221 
10.9557 8.75548 223 
11.5477 9.5316 224 
10.4853 11.3602 262 
10.9551 10.3243 263 
11.4251 11.2453 264 
ITEM: TIMESTEP
1240
ITEM: NUMBER OF ATOMS
14
ITEM: BOX BOUNDS pp pp pp
0 20
0 17.3205
-0.25 0.25
ITEM: ATOMS xu yu id 
9.57164 7.74267 180 
9.02792 8.57137 219 
9.51327 9.36034 220 
9.04802 10.4729 259 
9.54647 11.3375 260 
9.98747 10.4238 261 
10.5015 7.77493 182 
11.6189 7.83327 184 
10.0704 8.58578 221 
11.0256 8.66649 223 
11.5431 9.53797 224 
10.5451 11.2636 262 
10.9095 10.3846 263 
11.5666 11.2921 264 
ITEM: TIMESTEP
1280
ITEM: NUMBER OF ATOMS
14
ITEM: BOX BOUNDS pp pp pp
0 20
0 17.3205
-0.25 0.25
ITEM: ATOMS xu yu id 
9.50164 7.82567 180 
9.02729 8.77754 219 
9.52038 9.57315 220 
8.94592 10.3779 259 
9.49537 11.3389 260 
9.9733 10.3682 261 
10.5444 7.81161 182 
11.5901 7.72195 184 
10.0245 8.64982 221 
11.0557 8.63696 223 
11.4404 9.51851 224 
10.4583 11.3034 262 
11.0611 10.4076 263 
11.46 11.2805 264 
ITEM: TIMESTEP
1320
ITEM: NUMBER OF ATOMS
14
ITEM: BOX BOUNDS pp pp pp
0 20
0 17.3205
-0.25 0.25
ITEM: ATOMS xu yu id 
9.62516 7.83467 180 
9.01778 8.7737 219 
9.56794 9.70664 220 
8.9975 10.4425 259 
9.45793 11.3171 260 
10.0005 10.5092 261 
10.5627 7.76404 182 
11.5946 7.70672 184 
9.98966 8.84824 221 
10.9313 8.64874 223 
11.4496 9.55838 224 
10.4778 11.3483 262 
10.9567 10.3941 263 
11.4648 11.2403 264 
ITEM: TIMESTEP
1360
ITEM: NUMBER OF ATOMS
14
ITEM: BOX BOUNDS pp pp pp
0 20
0 17.3205
-0.25 0.25
ITEM: ATOMS xu yu id 
9.60659 7.8784 180 
9.06474 8.66148 219 
9.47712 9.5734 220 
8.95779 10.4293 259 
9.57282 11.3885 260 
9.91175 10.4645 261 
10.5449 7.62792 182 
11.4841 7.88784 184 
10.0619 8.72214 221 
11.0321 8.72647 223 
11.5501 9.50987 224 
10.5031 11.2646 262 
10.9584 10.3998 263 
11.4382 11.2597 264 
ITEM: TIMESTEP
1400
ITEM: NUMBER OF ATOMS
14
ITEM: BOX BOUNDS pp pp pp
0 20
0 17.3205
-0.25 0.25
ITEM: ATOMS xu yu id 
9.44434 7.71331 180 
9.00427 8.63015 219 
9.53334 9.4346 220 
8.99251 10.4641 259 
9.42769 11.2644 260 
10.0036 10.3199 261 
10.4731 7.80742 182 
11.4606 7.7707 184 
9.98734 8.57067 221 
11.0459 8.63758 223 
11.5155 9.49997 224 
10.4163 11.2592 262 
10.9371 10.269 263 
11.514 11.1285 264 
ITEM: TIMESTEP
1440
ITEM: NUMBER OF ATOMS
14
ITEM: BOX BOUNDS pp pp pp
0 20
0 17.3205
-0.25 0.25
ITEM: ATOMS xu yu id 
9.49315 7.73094 180 
8.91517 8.61642 219 
9.51726 9.5052 220 
8.98511 10.3473 259 
9.41112 11.2069 260 
9.96262 10.3562 261 
10.4258 7.75278 182 
11.5143 7.75023 184 
9.89474 8.58837 221 
11.0024 8.55614 223 
11.5039 9.40279 224 
10.4572 11.1425 262 
11.0415 10.3186 263 
11.4432 11.2479 264 
ITEM: TIMESTEP
1480
ITEM: NUMBER OF ATOMS
14
ITEM: BOX BOUNDS pp pp pp
0 20
0 17.3205
-0.25 0.25
ITEM: ATOMS xu yu id 
9.48864 7.78088 180 
9.00211 8.56502 219 
9.37607 9.43477 220 
9.04325 10.4114 259 
9.5298 11.2477 260 
10.0337 10.433 261 
10.5386 7.75102 182 
11.4679 7.7452 184 
10.0147 8.66164 221 
10.9957 8.66955 223 
11.4319 9.53543 224 
10.5531 11.2841 262 
10.9602 10.4336 263 
11.6183 11.2423 264 
ITEM: TIMESTEP
1520
ITEM: NUMBER OF ATOMS
14
ITEM: BOX BOUNDS pp pp pp
0 20
0 17.3205
-0.25 0.25
ITEM: ATOMS xu yu id 
9.49842 7.82461 180 
8.93077 8.63679 219 
9.46814 9.48771 220 
9.00958 10.3326 259 
9.65427 11.2222 260 
10.0269 10.3019 261 
10.5164 7.93258 182 
11.517 7.82048 184 
9.88404 8.66184 221 
11.0727 8.63178 223 
11.4145 9.53099 224 
10.5367 11.2411 262 
11.0379 10.3976 263 
11.5238 11.2072 264 
ITEM: TIMESTEP
1560
ITEM: NUMBER OF ATOMS
14
ITEM: BOX BOUNDS pp pp pp
0 20
0 17.3205
-0.25 0.25
ITEM: ATOMS xu yu id 
9.45372 7.81804 180 
8.98273 8.67373 219 
9.47846 9.49927 220 
9.01583 10.3559 259 
9.49067 11.1233 260 
10.0609 10.2635 261 
10.457 7.6973 182 
11.5075 7.75636 184 
10.0111 8.65149 221 
10.946 8.77657 223 
11.5938 9.4731 224 
10.5001 11.0842 262 
11.0571 10.2311 263 
11.5133 11.3123 264 
ITEM: TIMESTEP
1600
ITEM: NUMBER OF ATOMS
14
ITEM: BOX BOUNDS pp pp pp
0 20
0 17.3205
-0.25 0.25
ITEM: ATOMS xu yu id 
9.49142 7.75429 180 
8.99121 8.6475 219 
9.54044 9.44832 220 
9.05026 10.2984 259 
9.52475 11.1537 260 
10.0193 10.3109 261 
10.5155 7.90543 182 
11.4622 7.77989 184 
10.0434 8.65461 221 
11.0486 8.66976 223 
11.6847 9.5304 224 
10.5869 11.1617 262 
10.9858 10.2352 263 
11.5195 11.1848 264 
ITEM: TIMESTEP
1640
ITEM: NUMBER OF ATOMS
14
ITEM: BOX BOUNDS pp pp pp
0 20
0 17.3205
-0.25 0.25
ITEM: ATOMS xu yu id 
9.52181 7.84774 180 
8.99777 8.63669 219 
9.44672 9.56569 220 
9.05192 10.3914 259 
9.57882 11.2433 260 
10.0089 10.3651 261 
10.4912 7.76532 182 
11.4223 7.87177 184 
10.0666 8.7368 221 
10.9967 8.70609 223 
11.4637 9.5255 224 
10.51 11.2544 262 
10.9926 10.4105 263 
11.5524 11.1693 264 
ITEM: TIMESTEP
1680
ITEM: NUMBER OF ATOMS
14
ITEM: BOX BOUNDS pp pp pp
0 20
0 17.3205
-0.25 0.25
ITEM: ATOMS xu yu id 
9.47311 7.7896 180 
8.93444 8.73584 219 
9.50602 9.55718 220 
9.02535 10.4151 259 
9.52179 11.2964 260 
10.0524 10.3932 261 
10.4657 7.88012 182 
11.5625 7.80275 184 
9.94925 8.64711 221 
10.91 8.71866 223 
11.5017 9.62118 224 
10.5778 11.3077 262 
11.069 10.4437 263 
11.5169 11.3202 264 
ITEM: TIMESTEP
1720
ITEM: NUMBER OF ATOMS
14
ITEM: BOX BOUNDS pp pp pp
0 20
0 17.3205
-0.25 0.25
ITEM: ATOMS xu yu id 
9.41443 7.80316 180 
8.97941 8.63537 219 
9.54993 9.5572 220 
9.01995 10.4434 259 
9.4914 11.2749 260 
9.96068 10.433 261 
10.4507 7.81012 182 
11.4914 7.81898 184 
9.91273 8.66886 221 
10.965 8.6921 223 
11.5262 9.49392 224 
10.5443 11.2699 262 
10.9631 10.4229 263 
11.5397 11.3004 264 
ITEM: TIMESTEP
1760
ITEM: NUMBER OF ATOMS
14
ITEM: BOX BOUNDS pp pp pp
0 20
0 17.3205
-0.25 0.25
ITEM: ATOMS xu yu id 
9.49171 7.88607 180 
9.02294 8.72656 219 
9.58697 9.50625 220 
9.00473 10.4842 259 
9.51605 11.2972 260 
10.0027 10.4083 261 
10.4067 7.8085 182 
11.4378 7.81166 184 
10.0301 8.70319 221 
10.9672 8.68786 223 
11.3377 9.49979 224 
10.4673 11.2079 262 
10.9228 10.3494 263 
11.5008 11.2309 264 
ITEM: TIMESTEP
1800
ITEM: NUMBER OF ATOMS
14
ITEM: BOX BOUNDS pp pp pp
0 20
0 17.3205
-0.25 0.25
ITEM: ATOMS xu yu id 
9.47785 7.811 180 
8.91937 8.75687 219 
9.50486 9.56164 220 
8.97944 10.356 259 
9.48094 11.2928 260 
10.0024 10.5175 261 
10.5244 7.75682 182 
11.5374 7.88754 184 
9.94313 8.69006 221 
10.973 8.67121 223 
11.4108 9.60576 224 
10.4723 11.3466 262 
10.9805 10.5113 263 
11.4652 11.3308 264 
ITEM: TIMESTEP
1840
ITEM: NUMBER OF ATOMS
14
ITEM: BOX BOUNDS pp pp pp
0 20
0 17.3205
-0.25 0.25
ITEM: ATOMS xu yu id 
9.49446 7.76328 180 
8.97817 8.64191 219 
9.39115 9.53664 220 
9.0074 10.4409 259 
9.46378 11.2782 260 
9.9487 10.427 261 
10.4728 7.92371 182 
11.3874 7.79376 184 
9.9198 8.65807 221 
10.9382 8.83654 223 
11.503 9.67004 224 
10.451 11.3637 262 
10.9603 10.5314 263 
11.4772 11.3812 264 
ITEM: TIMESTEP
1880
ITEM: NUMBER OF ATOMS
14
ITEM: BOX BOUNDS pp pp pp
0 20
0 17.3205
-0.25 0.25
ITEM: ATOMS xu yu id 
9.44668 7.87831 180 
8.90253 8.66804 219 
9.44365 9.59041 220 
8.95038 10.413 259 
9.50282 11.23 260 
10.0344 10.3703 261 
10.3954 7.85071 182 
11.4353 7.83185 184 
9.94006 8.73927 221 
10.8893 8.85215 223 
11.4548 9.61754 224 
10.5057 11.2799 262 
10.954 10.4042 263 
11.4423 11.2339 264 
ITEM: TIMESTEP
1920
ITEM: NUMBER OF ATOMS
14
ITEM: BOX BOUNDS pp pp pp
0 20
0 17.3205
-0.25 0.25
ITEM: ATOMS xu yu id 
9.42477 7.82945 180 
8.95647 8.76001 219 
9.42785 9.65961 220 
8.88063 10.3783 259 
9.5159 11.214 260 
9.97788 10.3385 261 
10.5071 7.84141 182 
11.487 7.84493 184 
9.96153 8.70569 221 
10.9464 8.60096 223 
11.4478 9.4582 224 
10.5649 11.1647 262 
11.0083 10.3133 263 
11.5755 11.2382 264 
ITEM: TIMESTEP
1960
ITEM: NUMBER OF ATOMS
14
ITEM: BOX BOUNDS pp pp pp
0 20
0 17.3205
-0.25 0.25
ITEM: ATOMS xu yu id 
9.53901 7.81392 180 
9.06056 8.57095 219 
9.48614 9.38655 220 
9.19312 10.3632 259 
9.59706 11.2063 260 
10.0845 10.3876 261 
10.4856 7.88667 182 
11.5147 7.9069 184 
10.0509 8.66401 221 
10.9477 8.72132 223 
11.5044 9.5701 224 
10.534 11.2367 262 
11.0265 10.3322 263 
11.483 11.1416 264 
ITEM: TIMESTEP
2000
ITEM: NUMBER OF ATOMS
14
ITEM: BOX BOUNDS pp pp pp
0 20
0 17.3205
-0.25 0.25
ITEM: ATOMS xu yu id 
9.44816 7.78017 180 
8.99657 8.67775 219 
9.72971 9.49146 220 
9.02664 10.317 259 
9.5006 11.2488 260 
9.95162 8.57949 221 
10.1419 10.3196 261 
10.4737 7.8163 182 
11.5471 7.83143 184 
11.0499 8.8417 223 
11.6622 9.58704 224 
10.4947 11.2478 262 
11.1709 10.4327 263 
11.501 11.333 264 
ITEM: TIMESTEP
2040
ITEM: NUMBER OF ATOMS
14
ITEM: BOX BOUNDS pp pp pp
0 20
0 17.3205
-0.25 0.25
ITEM: ATOMS xu yu id 
9.56975 7.80931 180 
9.09347 8.63562 219 
9.62348 9.59002 220 
9.01703 10.4208 259 
9.60748 11.2048 260 
10.0678 8.63736 221 
10.0823 10.3976 261 
10.5829 7.71518 182 
11.5135 7.83511 184 
10.9727 8.70021 223 
11.4926 9.49017 224 
10.5896 11.3197 262 
11.0447 10.4386 263 
11.4746 11.3455 264 
ITEM: TIMESTEP
2080
ITEM: NUMBER OF ATOMS
14
ITEM: BOX BOUNDS pp pp pp
0 20
0 17.3205
-0.25 0.25
ITEM: ATOMS xu yu id 
9.51489 7.80179 180 
9.00671 8.67413 219 
9.43912 9.49727 220 
9.0478 10.4362 259 
9.45011 11.3058 260 
10.0139 8.74382 221 
10.003 10.4458 261 
10.4978 7.86135 182 
11.6504 7.67349 184 
11.1045 8.57134 223 
11.4058 9.60328 224 
10.533 11.3136 262 
10.959 10.4483 263 
11.552 11.3053 264 
ITEM: TIMESTEP
2120
ITEM: NUMBER OF ATOMS
14
ITEM: BOX BOUNDS pp pp pp
0 20
0 17.3205
-0.25 0.25
ITEM: ATOMS xu yu id 
9.46486 7.8956 180 
8.9077 8.64796 219 
9.51691 9.58256 220 
8.89973 10.4243 259 
9.50856 11.3974 260 
10.0699 8.71962 221 
9.92366 10.496 261 
10.5185 7.79191 182 
11.4401 7.8755 184 
11.0299 8.76361 223 
11.468 9.58071 224 
10.4104 11.3381 262 
10.9621 10.4596 263 
11.4578 11.2736 264 
ITEM: TIMESTEP
2160
ITEM: NUMBER OF ATOMS
14
ITEM: BOX BOUNDS pp pp pp
0 20
0 17.3205
-0.25 0.25
ITEM: ATOMS xu yu id 
9.45232 7.78087 180 
9.01693 8.73358 219 
9.6144 9.53427 220 
8.88372 10.4431 259 
9.35052 11.2495 260 
9.88472 8.63467 221 
9.91127 10.4483 261 
10.4302 7.89282 182 
11.4702 7.83357 184 
10.8518 8.84529 223 
11.4771 9.56371 224 
10.5319 11.2599 262 
10.8986 10.345 263 
11.4997 11.2242 264 
ITEM: TIMESTEP
2200
ITEM: NUMBER OF ATOMS
14
ITEM: BOX BOUNDS pp pp pp
0 20
0 17.3205
-0.25 0.25
ITEM: ATOMS xu yu id 
9.49104 7.79345 180 
8.95537 8.73711 219 
9.44415 9.55436 220 
8.97668 10.3988 259 
9.46234 11.2087 260 
9.88116 8.67703 221 
9.91679 10.3739 261 
10.4893 7.79103 182 
11.4431 7.71996 184 
10.8811 8.74123 223 
11.4152 9.5023 224 
10.4889 11.2033 262 
10.924 10.346 263 
11.4401 11.2742 264 
ITEM: TIMESTEP
2240
ITEM: NUMBER OF ATOMS
14
ITEM: BOX BOUNDS pp pp pp
0 20
0 17.3205
-0.25 0.25
ITEM: ATOMS xu yu id 
9.36434 7.88039 180 
8.89998 8.63817 219 
9.37743 9.48107 220 
8.86914 10.2896 259 
9.49108 11.1223 260 
10.0217 8.76427 221 
10.0644 10.2415 261 
10.3531 7.7877 182 
11.4237 7.72061 184 
10.9136 8.56914 223 
11.3319 9.45706 224 
10.3993 11.2513 262 
10.9666 10.3605 263 
11.4631 11.1531 264 
ITEM: TIMESTEP
2280
ITEM: NUMBER OF ATOMS
14
ITEM: BOX BOUNDS pp pp pp
0 20
0 17.3205
-0.25 0.25
ITEM: ATOMS xu yu id 
9.35023 7.75673 180 
8.83986 8.63329 219 
9.38489 9.4444 220 
8.97263 10.3643 259 
9.49432 11.1468 260 
9.93361 8.67282 221 
9.93562 10.2615 261 
10.3729 7.85549 182 
11.3463 7.78925 184 
11.0128 8.62355 223 
11.3134 9.53678 224 
10.5209 11.2587 262 
10.9221 10.4109 263 
11.5335 11.1762 264 
ITEM: TIMESTEP
2320
ITEM: NUMBER OF ATOMS
14
ITEM: BOX BOUNDS pp pp pp
0 20
0 17.3205
-0.25 0.25
ITEM: ATOMS xu yu id 
9.47382 7.70762 180 
8.98925 8.54254 219 
9.43804 9.45382 220 
8.97313 10.2926 259 
9.48971 11.2391 260 
9.9079 8.55347 221 
9.95603 10.4373 261 
10.4921 7.70606 182 
11.484 7.724 184 
10.7324 8.82019 223 
11.4736 9.58181 224 
10.5291 11.2695 262 
11.0006 10.3983 263 
11.4771 11.3905 264 
ITEM: TIMESTEP
2360
ITEM: NUMBER OF ATOMS
14
ITEM: BOX BOUNDS pp pp pp
0 20
0 17.3205
-0.25 0.25
ITEM: ATOMS xu yu id 
9.5318 7.64834 180 
9.00378 8.67427 219 
9.70861 9.44904 220 
9.07545 10.3914 259 
9.46147 11.2876 260 
9.96057 8.54565 221 
10.0959 10.3302 261 
10.4961 7.77892 182 
11.4477 7.82121 184 
10.8051 8.83968 223 
11.5989 9.62623 224 
10.4749 11.2721 262 
11.0311 10.4732 263 
11.5661 11.2654 264 
ITEM: TIMESTEP
2400
ITEM: NUMBER OF ATOMS
14
ITEM: BOX BOUNDS pp pp pp
0 20
0 17.3205
-0.25 0.25
ITEM: ATOMS xu yu id 
9.43221 7.71174 180 
8.94004 8.5091 219 
9.72088 9.50748 220 
9.17625 10.3143 259 
9.59255 11.3067 260 
10.0174 8.53492 221 
10.1786 10.4041 261 
10.4677 7.67643 182 
11.3999 7.87207 184 
11.0631 8.70769 223 
11.5094 9.56174 224 
10.6352 11.2418 262 
11.125 10.3616 263 
11.5542 11.2866 264 
ITEM: TIMESTEP
2440
ITEM: NUMBER OF ATOMS
14
ITEM: BOX BOUNDS pp pp pp
0 20
0 17.3205
-0.25 0.25
ITEM: ATOMS xu yu id 
9.46415 7.81024 180 
8.97858 8.5823 219 
9.6693 9.49222 220 
9.1183 10.4092 259 
9.67846 11.1473 260 
10.0824 8.62118 221 
10.148 10.3116 261 
10.4235 7.71198 182 
11.4456 7.72801 184 
11.0239 8.56458 223 
11.5548 9.55247 224 
10.6353 11.2875 262 
11.1366 10.4652 263 
11.6199 11.2563 264 
ITEM: TIMESTEP
2480
ITEM: NUMBER OF ATOMS
14
ITEM: BOX BOUNDS pp pp pp
0 20
0 17.3205
-0.25 0.25
ITEM: ATOMS xu yu id 
9.53864 7.74926 180 
9.02322 8.65478 219 
9.43303 9.52046 220 
8.99775 10.3067 259 
9.46248 11.1461 260 
10.0066 8.63114 221 
10.0284 10.219 261 
10.5225 7.82669 182 
11.5915 7.68843 184 
10.9907 8.73798 223 
11.4703 9.51348 224 
10.5917 11.1805 262 
11.0117 10.3405 263 
11.5179 11.2528 264 
ITEM: TIMESTEP
2520
ITEM: NUMBER OF ATOMS
14
ITEM: BOX BOUNDS pp pp pp
0 20
0 17.3205
-0.25 0.25
ITEM: ATOMS xu yu id 
9.58804 7.77814 180 
8.9547 8.59022 219 
9.43823 9.42733 220 
8.88414 10.392 259 
9.53053 11.2868 260 
9.94709 8.65881 221 
9.91807 10.3558 261 
10.597 7.74286 182 
11.5119 7.77186 184 
10.9047 8.73226 223 
11.5584 9.54041 224 
10.4739 11.1589 262 
10.9479 10.2933 263 
11.4201 11.2498 264 
ITEM: TIMESTEP
2560
ITEM: NUMBER OF ATOMS
14
ITEM: BOX BOUNDS pp pp pp
0 20
0 17.3205
-0.25 0.25
ITEM: ATOMS xu yu id 
9.45645 7.78711 180 
9.00172 8.63438 219 
9.37006 9.50583 220 
8.956 10.435 259 
9.43427 11.3332 260 
9.9911 8.62554 221 
9.90834 10.3364 261 
10.508 7.86058 182 
11.4645 7.77374 184 
11.0297 8.62712 223 
11.327 9.49909 224 
10.4104 11.3143 262 
10.8296 10.3186 263 
11.5454 11.2277 264 
ITEM: TIMESTEP
2600
ITEM: NUMBER OF ATOMS
14
ITEM: BOX BOUNDS pp pp pp
0 20
0 17.3205
-0.25 0.25
ITEM: ATOMS xu yu id 
9.46511 7.83474 180 
8.97502 8.7838 219 
9.51575 9.64418 220 
8.81152 10.4726 259 
9.40784 11.2831 260 
10.0361 8.79707 221 
9.91991 10.4398 261 
10.4245 7.74771 182 
11.502 7.76862 184 
10.9161 8.60869 223 
11.2766 9.5592 224 
10.434 11.2567 262 
10.9265 10.5243 263 
11.4264 11.3149 264 
ITEM: TIMESTEP
2640
ITEM: NUMBER OF ATOMS
14
ITEM: BOX BOUNDS pp pp pp
0 20
0 17.3205
-0.25 0.25
ITEM: ATOMS xu yu id 
9.43579 7.88855 180 
8.94756 8.76419 219 
9.46865 9.67379 220 
9.0165 10.4641 259 
9.41488 11.3288 260 
10.0146 8.79424 221 
10.0181 10.5608 261 
10.4902 7.74788 182 
11.4763 7.65576 184 
10.9023 8.66511 223 
11.4021 9.50826 224 
10.4855 11.3783 262 
10.972 10.4045 263 
11.3998 11.3016 264 
ITEM: TIMESTEP
2680
ITEM: NUMBER OF ATOMS
14
ITEM: BOX BOUNDS pp pp pp
0 20
0 17.3205
-0.25 0.25
ITEM: ATOMS xu yu id 
9.54871 7.86565 180 
8.96073 8.687 219 
9.46176 9.51779 220 
8.99448 10.4453 259 
9.49166 11.3025 260 
9.96091 8.69021 221 
9.9571 10.3665 261 
10.532 7.8541 182 
11.4513 7.79757 184 
11.0069 8.62891 223 
11.4715 9.47583 224 
10.4021 11.2723 262 
10.8895 10.374 263 
11.4152 11.2829 264 
ITEM: TIMESTEP
2720
ITEM: NUMBER OF ATOMS
14
ITEM: BOX BOUNDS pp pp pp
0 20
0 17.3205
-0.25 0.25
ITEM: ATOMS xu yu id 
9.4597 7.74187 180 
9.17563 8.64989 219 
9.61217 9.53793 220 
8.9638 10.393 259 
9.4447 11.2143 260 
10.1678 8.69867 221 
9.98617 10.4428 261 
10.4131 7.75112 182 
11.555 7.87486 184 
11.0938 8.80924 223 
11.5038 9.62547 224 
10.3991 11.2269 262 
10.924 10.3988 263 
11.4485 11.2225 264 
ITEM: TIMESTEP
2760
ITEM: NUMBER OF ATOMS
14
ITEM: BOX BOUNDS pp pp pp
0 20
0 17.3205
-0.25 0.25
ITEM: ATOMS xu yu id 
9.60993 7.78375 180 
8.96527 8.58416 219 
9.66692 9.54853 220 